,formula,spacegroup,form_e,above_hull_e,band_gap_e,n_sites,density,volume,has_bandstr,crystal_system
275,Li2Mn(Si2O5)2,P1,-2.958,0.054,3.036,34,2.633,430.361,True,triclinic
276,LiMn(SiO3)2,P1,-2.801,0.059,0.714,80,3.314,858.022,True,triclinic
277,Li5Mn17(SiO16)2,P1,-2.172,0.059,0.348,56,4.201,607.507,True,triclinic
278,Li2Mn2Si4O11,P1,-2.847,0.069,0.0,38,2.897,472.42,True,triclinic
279,Li9Mn5(SiO8)2,P1,-2.372,0.07,1.154,32,3.706,290.951,True,triclinic
280,Li2MnSi3O8,P1,-2.872,0.082,2.655,14,2.497,186.943,True,triclinic
281,LiMnSi3O8,P1,-2.868,0.09,1.055,26,2.963,307.264,False,triclinic
282,Li3Mn2(SiO4)2,P1,-2.605,0.09,0.0,15,2.938,177.985,True,triclinic
283,Li7Mn11(Si3O16)2,P1,-2.439,0.092,0.361,56,3.909,566.407,False,triclinic
284,LiMnSiO4,P1,-2.58,0.098,0.995,28,3.294,310.44,True,triclinic
285,Li3MnSi2O7,P1,-2.68,0.099,1.161,13,2.709,149.499,True,triclinic
286,LiMnSiO4,P1,-2.577,0.1,0.409,28,2.984,342.663,True,triclinic
287,Li2Fe2Si4O11,P1,-2.837,0.013,1.892,38,3.189,431.059,True,triclinic
288,LiFe(SiO3)2,P1,-2.791,0.03,3.056,20,2.2,324.509,True,triclinic
289,LiFe(SiO3)2,P1,-2.79,0.031,2.427,30,3.193,335.392,True,triclinic
290,Li2Fe5(Si2O7)2,P1,-2.563,0.031,0.0,25,3.492,299.319,True,triclinic
291,LiFeSi3O8,P1,-2.896,0.032,3.342,26,2.76,330.953,False,triclinic
292,Li2Fe4Si4O13,P1,-2.632,0.032,3.118,46,3.599,514.551,False,triclinic
293,Li2Fe2Si5O13,P1,-2.875,0.034,3.394,44,3.086,510.174,True,triclinic
294,LiFe(SiO3)2,P1,-2.785,0.036,2.596,80,3.251,878.288,False,triclinic
295,Li3Fe2(SiO4)2,P1,-2.585,0.039,1.626,15,2.951,178.21,True,triclinic
296,LiFeSi3O8,P1,-2.886,0.041,3.16,26,2.703,337.873,True,triclinic
297,Li2Fe2Si3O10,P1,-2.694,0.044,2.325,34,2.821,435.364,True,triclinic
298,Li17Fe6(Si2O7)6,P1,-2.691,0.046,0.0,77,2.868,846.546,False,triclinic
299,Li2Fe5Si5O16,P1,-2.62,0.049,2.117,28,3.101,369.232,True,triclinic
300,Li2Fe3(Si3O8)2,P1,-2.817,0.05,2.826,54,3.088,651.656,True,triclinic
301,Li2Fe3(SiO4)2,P1,-2.482,0.051,2.23,45,3.204,568.378,True,triclinic
302,LiFe3(SiO4)2,P1,-2.468,0.058,0.631,42,3.133,570.329,True,triclinic
303,Li3Fe2(SiO4)2,P1,-2.565,0.059,1.14,15,3.034,173.298,True,triclinic
304,Li7Fe7SiO16,P1,-2.144,0.06,1.955,31,3.232,371.739,True,triclinic
305,Li6Fe(SiO4)2,P1,-2.595,0.063,3.736,17,2.678,174.618,True,triclinic
306,Li2Fe(Si2O5)2,P1,-2.911,0.064,3.079,34,2.633,431.422,False,triclinic
307,Li3Fe2(SiO4)2,P1,-2.558,0.066,0.931,30,2.911,361.337,True,triclinic
308,LiFeSi3O8,P1,-2.859,0.068,2.413,26,2.896,315.39,False,triclinic
309,Li3Fe2(SiO4)2,P1,-2.555,0.069,1.854,15,2.925,179.798,True,triclinic
310,LiFeSiO4,P1,-2.551,0.071,2.292,28,2.969,346.461,True,triclinic
311,Li4Fe2SiO7,P1,-2.356,0.071,1.851,14,3.787,122.581,True,triclinic
312,Li5Fe5Si7O24,P1,-2.647,0.072,2.373,41,2.501,593.87,True,triclinic
313,Li5Fe5Si7O24,P1,-2.646,0.072,2.598,41,2.546,583.402,True,triclinic
314,Li5Fe5Si7O24,P1,-2.646,0.073,2.391,41,2.55,582.533,True,triclinic
315,Li2FeSi3O8,P1,-2.833,0.076,3.041,14,2.524,185.499,True,triclinic
316,Li2Fe2Si4O11,P1,-2.768,0.081,0.0,38,2.958,464.73,True,triclinic
317,Li3Fe4(Si3O10)2,P1,-2.633,0.082,0.054,33,2.777,438.109,True,triclinic
318,Li2FeSi3O8,P1,-2.826,0.082,0.0,28,2.507,373.616,True,triclinic
319,Li3FeSiO5,P1,-2.486,0.083,2.254,20,3.575,171.619,True,triclinic
320,Li5Fe5Si7O24,P1,-2.635,0.084,1.827,41,2.433,610.604,True,triclinic
321,Li4Fe(SiO4)2,P1,-2.543,0.089,0.232,15,2.781,159.895,False,triclinic
322,Li2Fe2Si8O19,P1,-2.927,0.091,3.508,31,2.776,391.367,True,triclinic
323,Li3FeSiO5,P1,-2.474,0.094,2.173,20,3.615,169.712,True,triclinic
324,Li9Fe4(SiO5)4,P1,-2.391,0.094,0.005,37,2.617,455.754,False,triclinic
325,Li4Fe3(SiO4)3,P1,-2.524,0.099,0.976,22,3.031,258.368,True,triclinic
326,Li2Fe(Si2O5)3,P1,-2.882,0.104,0.189,24,2.624,302.599,False,triclinic
327,Li16Fe4SiO16,P1,-2.132,0.106,2.139,37,2.668,384.899,True,triclinic
328,LiFe2(SiO4)2,P1,-2.426,0.114,0.0,39,2.753,547.911,False,triclinic
329,Li7Fe7SiO16,P1,-2.087,0.118,1.492,31,3.233,371.607,True,triclinic
330,Li2Co3(SiO4)2,P1,-2.343,0.024,2.47,45,3.408,547.959,True,triclinic
331,Li3Co2(SiO4)2,P1,-2.441,0.055,0.376,15,3.088,173.602,True,triclinic
332,Li3Co2(SiO4)2,P1,-2.439,0.057,0.23,15,3.024,177.312,True,triclinic
333,Li2Co(Si2O5)2,P1,-2.862,0.07,3.06,34,2.74,418.368,True,triclinic
334,Li6Co(SiO4)2,P1,-2.545,0.071,2.685,17,2.753,171.772,True,triclinic
335,LiCo3(SiO4)2,P1,-2.25,0.076,0.005,42,3.318,552.402,True,triclinic
336,Li5Co4(Si3O10)2,P1,-2.529,0.082,0.176,35,2.94,428.648,True,triclinic
337,LiCoSiO4,P1,-2.348,0.087,1.333,14,2.451,214.044,True,triclinic
338,Li3Co2(SiO4)2,P1,-2.406,0.09,0.323,15,3.043,176.207,False,triclinic